 vasp.5.4.4.18Apr17-6-g9f103f2a35 (build May 15 2023 17:40:21) complex          
  
 executed on             LinuxIFC date 2023.09.01  11:25:43
 running on   52 total cores
 distrk:  each k-point on   52 cores,    1 groups
 distr:  one band on NCORES_PER_BAND=  26 cores,    2 groups


--------------------------------------------------------------------------------------------------------


 INCAR:
 POTCAR:    PAW_PBE C 08Apr2002                   
 POTCAR:    PAW_PBE N 08Apr2002                   
 POTCAR:    PAW_PBE H 15Jun2001                   
 POTCAR:    PAW_PBE Sb 06Sep2000                  
 POTCAR:    PAW_PBE O 08Apr2002                   

 ----------------------------------------------------------------------------- 
|                                                                             |
|           W    W    AA    RRRRR   N    N  II  N    N   GGGG   !!!           |
|           W    W   A  A   R    R  NN   N  II  NN   N  G    G  !!!           |
|           W    W  A    A  R    R  N N  N  II  N N  N  G       !!!           |
|           W WW W  AAAAAA  RRRRR   N  N N  II  N  N N  G  GGG   !            |
|           WW  WW  A    A  R   R   N   NN  II  N   NN  G    G                |
|           W    W  A    A  R    R  N    N  II  N    N   GGGG   !!!           |
|                                                                             |
|      For optimal performance we recommend to set                            |
|        NCORE= 4 - approx SQRT( number of cores)                             |
|      NCORE specifies how many cores store one orbital (NPAR=cpu/NCORE).     |
|      This setting can  greatly improve the performance of VASP for DFT.     |
|      The default,   NCORE=1            might be grossly inefficient         |
|      on modern multi-core architectures or massively parallel machines.     |
|      Do your own testing !!!!                                               |
|      Unfortunately you need to use the default for GW and RPA calculations. |
|      (for HF NCORE is supported but not extensively tested yet)             |
|                                                                             |
 ----------------------------------------------------------------------------- 

 POTCAR:    PAW_PBE C 08Apr2002                   
   VRHFIN =C: s2p2                                                              
   LEXCH  = PE                                                                  
   EATOM  =   147.1560 eV,   10.8157 Ry                                         
                                                                                
   TITEL  = PAW_PBE C 08Apr2002                                                 
   LULTRA =        F    use ultrasoft PP ?                                      
   IUNSCR =        1    unscreen: 0-lin 1-nonlin 2-no                           
   RPACOR =    1.200    partial core radius                                     
   POMASS =   12.011; ZVAL   =    4.000    mass and valenz                      
   RCORE  =    1.500    outmost cutoff radius                                   
   RWIGS  =    1.630; RWIGS  =    0.863    wigner-seitz radius (au A)           
   ENMAX  =  400.000; ENMIN  =  300.000 eV                                      
   ICORE  =        2    local potential                                         
   LCOR   =        T    correct aug charges                                     
   LPAW   =        T    paw PP                                                  
   EAUG   =  644.873                                                            
   DEXC   =    0.000                                                            
   RMAX   =    1.529    core radius for proj-oper                               
   RAUG   =    1.300    factor for augmentation sphere                          
   RDEP   =    1.501    radius for radial grids                                 
   RDEPT  =    1.300    core radius for aug-charge                              
                                                                                
   Atomic configuration                                                         
    4 entries                                                                   
     n  l   j            E        occ.                                          
     1  0  0.50      -273.3789   2.0000                                         
     2  0  0.50       -13.7508   2.0000                                         
     2  1  0.50        -5.2854   2.0000                                         
     3  2  1.50        -5.4423   0.0000                                         
   Description                                                                  
     l       E           TYP  RCUT    TYP  RCUT                                 
     0    -13.7508458     23  1.200                                             
     0     -8.2022199     23  1.200                                             
     1     -5.2854383     23  1.500                                             
     1     34.0145650     23  1.500                                             
     2     -5.4423304      7  1.500                                             
  local pseudopotential read in
  partial core-charges read in
  partial kinetic energy density read in
  atomic valenz-charges read in
  non local Contribution for L=           0  read in
    real space projection operators read in
  non local Contribution for L=           0  read in
    real space projection operators read in
  non local Contribution for L=           1  read in
    real space projection operators read in
  non local Contribution for L=           1  read in
    real space projection operators read in
    PAW grid and wavefunctions read in
 
   number of l-projection  operators is LMAX  =           4
   number of lm-projection operators is LMMAX =           8
 
 POTCAR:    PAW_PBE N 08Apr2002                   
   VRHFIN =N: s2p3                                                              
   LEXCH  = PE                                                                  
   EATOM  =   264.5486 eV,   19.4438 Ry                                         
                                                                                
   TITEL  = PAW_PBE N 08Apr2002                                                 
   LULTRA =        F    use ultrasoft PP ?                                      
   IUNSCR =        1    unscreen: 0-lin 1-nonlin 2-no                           
   RPACOR =    1.200    partial core radius                                     
   POMASS =   14.001; ZVAL   =    5.000    mass and valenz                      
   RCORE  =    1.500    outmost cutoff radius                                   
   RWIGS  =    1.400; RWIGS  =    0.741    wigner-seitz radius (au A)           
   ENMAX  =  400.000; ENMIN  =  300.000 eV                                      
   ICORE  =        2    local potential                                         
   LCOR   =        T    correct aug charges                                     
   LPAW   =        T    paw PP                                                  
   EAUG   =  627.112                                                            
   DEXC   =    0.000                                                            
   RMAX   =    1.529    core radius for proj-oper                               
   RAUG   =    1.300    factor for augmentation sphere                          
   RDEP   =    1.514    radius for radial grids                                 
   RDEPT  =    1.338    core radius for aug-charge                              
                                                                                
   Atomic configuration                                                         
    4 entries                                                                   
     n  l   j            E        occ.                                          
     1  0  0.50      -384.7179   2.0000                                         
     2  0  0.50       -18.5828   2.0000                                         
     2  1  0.50        -7.0898   3.0000                                         
     3  2  1.50        -6.8029   0.0000                                         
   Description                                                                  
     l       E           TYP  RCUT    TYP  RCUT                                 
     0    -18.5828119     23  1.200                                             
     0    -13.5018863     23  1.200                                             
     1     -7.0897853     23  1.500                                             
     1      9.5240782     23  1.500                                             
     2     -6.8029130      7  1.500                                             
  local pseudopotential read in
  partial core-charges read in
  partial kinetic energy density read in
  atomic valenz-charges read in
  non local Contribution for L=           0  read in
    real space projection operators read in
  non local Contribution for L=           0  read in
    real space projection operators read in
  non local Contribution for L=           1  read in
    real space projection operators read in
  non local Contribution for L=           1  read in
    real space projection operators read in
    PAW grid and wavefunctions read in
 
   number of l-projection  operators is LMAX  =           4
   number of lm-projection operators is LMMAX =           8
 
 POTCAR:    PAW_PBE H 15Jun2001                   
   VRHFIN =H: ultrasoft test                                                    
   LEXCH  = PE                                                                  
   EATOM  =    12.4884 eV,    0.9179 Ry                                         
                                                                                
   TITEL  = PAW_PBE H 15Jun2001                                                 
   LULTRA =        F    use ultrasoft PP ?                                      
   IUNSCR =        0    unscreen: 0-lin 1-nonlin 2-no                           
   RPACOR =    0.000    partial core radius                                     
   POMASS =    1.000; ZVAL   =    1.000    mass and valenz                      
   RCORE  =    1.100    outmost cutoff radius                                   
   RWIGS  =    0.700; RWIGS  =    0.370    wigner-seitz radius (au A)           
   ENMAX  =  250.000; ENMIN  =  200.000 eV                                      
   RCLOC  =    0.701    cutoff for local pot                                    
   LCOR   =        T    correct aug charges                                     
   LPAW   =        T    paw PP                                                  
   EAUG   =  400.000                                                            
   RMAX   =    1.123    core radius for proj-oper                               
   RAUG   =    1.200    factor for augmentation sphere                          
   RDEP   =    1.112    radius for radial grids                                 
   RDEPT  =    0.926    core radius for aug-charge                              
                                                                                
   Atomic configuration                                                         
    2 entries                                                                   
     n  l   j            E        occ.                                          
     1  0  0.50        -6.4927   1.0000                                         
     2  1  0.50        -3.4015   0.0000                                         
   Description                                                                  
     l       E           TYP  RCUT    TYP  RCUT                                 
     0     -6.4927494     23  1.100                                             
     0      6.8029130     23  1.100                                             
     1     -4.0817478     23  1.100                                             
  local pseudopotential read in
  atomic valenz-charges read in
  non local Contribution for L=           0  read in
    real space projection operators read in
  non local Contribution for L=           0  read in
    real space projection operators read in
  non local Contribution for L=           1  read in
    real space projection operators read in
    PAW grid and wavefunctions read in
 
   number of l-projection  operators is LMAX  =           3
   number of lm-projection operators is LMMAX =           5
 
 POTCAR:    PAW_PBE Sb 06Sep2000                  
   VRHFIN =Sb: s2p3                                                             
   LEXCH  = PE                                                                  
   EATOM  =   149.9515 eV,   11.0211 Ry                                         
                                                                                
   TITEL  = PAW_PBE Sb 06Sep2000                                                
   LULTRA =        F    use ultrasoft PP ?                                      
   IUNSCR =        1    unscreen: 0-lin 1-nonlin 2-no                           
   RPACOR =    2.200    partial core radius                                     
   POMASS =  121.750; ZVAL   =    5.000    mass and valenz                      
   RCORE  =    2.300    outmost cutoff radius                                   
   RWIGS  =    2.980; RWIGS  =    1.577    wigner-seitz radius (au A)           
   ENMAX  =  172.069; ENMIN  =  129.052 eV                                      
   ICORE  =        3    local potential                                         
   LCOR   =        T    correct aug charges                                     
   LPAW   =        T    paw PP                                                  
   EAUG   =  380.513                                                            
   DEXC   =    0.000                                                            
   RMAX   =    2.346    core radius for proj-oper                               
   RAUG   =    1.300    factor for augmentation sphere                          
   RDEP   =    2.360    radius for radial grids                                 
   RDEPT  =    2.192    core radius for aug-charge                              
                                                                                
   Atomic configuration                                                         
   13 entries                                                                   
     n  l   j            E        occ.                                          
     1  0  0.50    -30298.2797   2.0000                                         
     2  0  0.50     -4610.2252   2.0000                                         
     2  1  1.50     -4138.3407   6.0000                                         
     3  0  0.50      -903.8815   2.0000                                         
     3  1  1.50      -750.1337   6.0000                                         
     3  2  2.50      -515.7092  10.0000                                         
     4  0  0.50      -148.8034   2.0000                                         
     4  1  1.50      -101.7581   6.0000                                         
     4  2  2.50       -33.5048  10.0000                                         
     5  0  0.50       -12.8298   2.0000                                         
     5  1  0.50        -4.8276   3.0000                                         
     5  2  1.50        -4.0817   0.0000                                         
     4  3  2.50        -4.0817   0.0000                                         
   Description                                                                  
     l       E           TYP  RCUT    TYP  RCUT                                 
     0    -12.8297861     23  2.300                                             
     0     13.6058260     23  2.300                                             
     1     -4.8275512     23  2.300                                             
     1     -0.7245443     23  2.300                                             
     2     -4.0817478     23  2.300                                             
     3     -1.3605826     23  2.300                                             
  local pseudopotential read in
  partial core-charges read in
  partial kinetic energy density read in
  atomic valenz-charges read in
  non local Contribution for L=           0  read in
    real space projection operators read in
  non local Contribution for L=           0  read in
    real space projection operators read in
  non local Contribution for L=           1  read in
    real space projection operators read in
  non local Contribution for L=           1  read in
    real space projection operators read in
  non local Contribution for L=           2  read in
    real space projection operators read in
    PAW grid and wavefunctions read in
 
   number of l-projection  operators is LMAX  =           5
   number of lm-projection operators is LMMAX =          13
 
 POTCAR:    PAW_PBE O 08Apr2002                   
   VRHFIN =O: s2p4                                                              
   LEXCH  = PE                                                                  
   EATOM  =   432.3788 eV,   31.7789 Ry                                         
                                                                                
   TITEL  = PAW_PBE O 08Apr2002                                                 
   LULTRA =        F    use ultrasoft PP ?                                      
   IUNSCR =        1    unscreen: 0-lin 1-nonlin 2-no                           
   RPACOR =    1.200    partial core radius                                     
   POMASS =   16.000; ZVAL   =    6.000    mass and valenz                      
   RCORE  =    1.520    outmost cutoff radius                                   
   RWIGS  =    1.550; RWIGS  =    0.820    wigner-seitz radius (au A)           
   ENMAX  =  400.000; ENMIN  =  300.000 eV                                      
   ICORE  =        2    local potential                                         
   LCOR   =        T    correct aug charges                                     
   LPAW   =        T    paw PP                                                  
   EAUG   =  605.392                                                            
   DEXC   =    0.000                                                            
   RMAX   =    1.553    core radius for proj-oper                               
   RAUG   =    1.300    factor for augmentation sphere                          
   RDEP   =    1.550    radius for radial grids                                 
   RDEPT  =    1.329    core radius for aug-charge                              
                                                                                
   Atomic configuration                                                         
    4 entries                                                                   
     n  l   j            E        occ.                                          
     1  0  0.50      -514.6923   2.0000                                         
     2  0  0.50       -23.9615   2.0000                                         
     2  1  0.50        -9.0305   4.0000                                         
     3  2  1.50        -9.5241   0.0000                                         
   Description                                                                  
     l       E           TYP  RCUT    TYP  RCUT                                 
     0    -23.9615318     23  1.200                                             
     0     -9.5240782     23  1.200                                             
     1     -9.0304911     23  1.520                                             
     1      8.1634956     23  1.520                                             
     2     -9.5240782      7  1.500                                             
  local pseudopotential read in
  partial core-charges read in
  partial kinetic energy density read in
  kinetic energy density of atom read in
  atomic valenz-charges read in
  non local Contribution for L=           0  read in
    real space projection operators read in
  non local Contribution for L=           0  read in
    real space projection operators read in
  non local Contribution for L=           1  read in
    real space projection operators read in
  non local Contribution for L=           1  read in
    real space projection operators read in
    PAW grid and wavefunctions read in
 
   number of l-projection  operators is LMAX  =           4
   number of lm-projection operators is LMMAX =           8
 
 Optimization of the real space projectors (new method)

 maximal supplied QI-value         = 25.13
 optimisation between [QCUT,QGAM] = [ 11.56, 23.12] = [ 37.43,149.72] Ry 
 Optimized for a Real-space Cutoff    1.04 Angstroem

   l    n(q)    QCUT    max X(q) W(low)/X(q) W(high)/X(q)  e(spline) 
   0      7    11.561   115.676    0.20E-03    0.60E-03    0.21E-06
   0      7    11.561    87.132    0.20E-03    0.59E-03    0.21E-06
   1      7    11.561     4.429    0.23E-03    0.35E-03    0.15E-06
   1      7    11.561     2.733    0.18E-03    0.25E-03    0.12E-06
 Optimization of the real space projectors (new method)

 maximal supplied QI-value         = 25.13
 optimisation between [QCUT,QGAM] = [ 11.56, 23.12] = [ 37.43,149.72] Ry 
 Optimized for a Real-space Cutoff    1.25 Angstroem

   l    n(q)    QCUT    max X(q) W(low)/X(q) W(high)/X(q)  e(spline) 
   0      9    11.561    79.467    0.52E-04    0.16E-03    0.37E-06
   0      9    11.561    66.151    0.51E-04    0.16E-03    0.37E-06
   1      8    11.561    18.886    0.46E-03    0.28E-03    0.80E-06
   1      8    11.561    13.488    0.47E-03    0.29E-03    0.82E-06
 Optimization of the real space projectors (new method)

 maximal supplied QI-value         = 34.20
 optimisation between [QCUT,QGAM] = [ 11.63, 23.26] = [ 37.87,151.49] Ry 
 Optimized for a Real-space Cutoff    1.14 Angstroem

   l    n(q)    QCUT    max X(q) W(low)/X(q) W(high)/X(q)  e(spline) 
   0      8    11.629    19.460    0.27E-03    0.65E-03    0.17E-06
   0      8    11.629    12.209    0.25E-03    0.62E-03    0.16E-06
   1      7    11.629     4.655    0.29E-03    0.85E-04    0.19E-06
 Optimization of the real space projectors (new method)

 maximal supplied QI-value         = 16.25
 optimisation between [QCUT,QGAM] = [ 11.54, 23.24] = [ 37.28,151.24] Ry 
 Optimized for a Real-space Cutoff    1.28 Angstroem

   l    n(q)    QCUT    max X(q) W(low)/X(q) W(high)/X(q)  e(spline) 
   0      9    11.539    19.000    0.11E-03    0.18E-03    0.75E-07
   0      9    11.539     9.057    0.12E-03    0.22E-03    0.92E-07
   1      8    11.539   125.345    0.26E-03    0.92E-04    0.15E-06
   1      8    11.539    79.963    0.26E-03    0.91E-04    0.14E-06
   2      8    11.539     6.963    0.87E-04    0.17E-03    0.50E-07
 Optimization of the real space projectors (new method)

 maximal supplied QI-value         = 24.76
 optimisation between [QCUT,QGAM] = [ 11.64, 23.27] = [ 37.91,151.63] Ry 
 Optimized for a Real-space Cutoff    1.04 Angstroem

   l    n(q)    QCUT    max X(q) W(low)/X(q) W(high)/X(q)  e(spline) 
   0      7    11.635    20.381    0.14E-03    0.49E-03    0.18E-06
   0      7    11.635    15.268    0.16E-03    0.52E-03    0.19E-06
   1      7    11.635     5.964    0.30E-03    0.44E-03    0.22E-06
   1      7    11.635     5.382    0.27E-03    0.34E-03    0.19E-06
  PAW_PBE C 08Apr2002                   :
 energy of atom  1       EATOM= -147.1560
 kinetic energy error for atom=    0.0071 (will be added to EATOM!!)
  PAW_PBE N 08Apr2002                   :
 energy of atom  2       EATOM= -264.5486
 kinetic energy error for atom=    0.0125 (will be added to EATOM!!)
  PAW_PBE H 15Jun2001                   :
 energy of atom  3       EATOM=  -12.4884
 kinetic energy error for atom=    0.0014 (will be added to EATOM!!)
  PAW_PBE Sb 06Sep2000                  :
 energy of atom  4       EATOM= -149.9515
 kinetic energy error for atom=    0.0005 (will be added to EATOM!!)
  PAW_PBE O 08Apr2002                   :
 energy of atom  5       EATOM= -432.3788
 kinetic energy error for atom=    0.0208 (will be added to EATOM!!)
 
 
 POSCAR: CONTCAR-o2                              
  positions in direct lattice
  velocities in cartesian coordinates
 exchange correlation table for  LEXCH =        8
   RHO(1)=    0.500       N(1)  =     2000
   RHO(2)=  100.500       N(2)  =     4000

 VTST: version 3.2, (02/03/18)

 CHAIN: initializing optimizer
 
 OPT: Using VASP Dynamics algorithm
 CHAIN: Read ICHAIN            0
 
 POSCAR: CONTCAR-o2                              
  positions in direct lattice
  velocities in cartesian coordinates
 


--------------------------------------------------------------------------------------------------------


 ion  position               nearest neighbor table
   1  0.425  0.254  0.482-  25 1.33  21 1.39  16 1.45
   2  0.637  0.254  0.481-  22 1.33  21 1.39  17 1.45
   3  0.271  0.621  0.482-  24 1.33  23 1.39   4 1.45
   4  0.141  0.581  0.480-  10 1.40   5 1.43   3 1.45
   5  0.141  0.448  0.480-   7 1.40   4 1.43   6 1.45
   6  0.271  0.409  0.483-  25 1.33  23 1.39   5 1.45
   7  0.031  0.379  0.479-  30 1.09   5 1.40   8 1.40
   8  0.920  0.448  0.479-   7 1.40   9 1.43  19 1.45
   9  0.921  0.581  0.479-  10 1.40   8 1.43  20 1.45
  10  0.031  0.650  0.478-  29 1.09   4 1.40   9 1.40
  11  0.637  0.775  0.481-  27 1.33  26 1.40  12 1.45
  12  0.598  0.904  0.478-  18 1.40  13 1.43  11 1.45
  13  0.464  0.904  0.479-  15 1.40  12 1.43  14 1.45
  14  0.425  0.775  0.482-  24 1.33  26 1.39  13 1.45
  15  0.395  0.015  0.479-  31 1.09  13 1.40  16 1.40
  16  0.464  0.125  0.479-  15 1.40  17 1.43   1 1.45
  17  0.598  0.125  0.479-  18 1.40  16 1.43   2 1.45
  18  0.667  0.015  0.477-  32 1.09  17 1.40  12 1.40
  19  0.791  0.409  0.481-  22 1.33  28 1.39   8 1.45
  20  0.791  0.621  0.481-  27 1.33  28 1.39   9 1.45
  21  0.531  0.330  0.484-   1 1.39   2 1.39  33 2.20
  22  0.756  0.290  0.481-  19 1.33   2 1.33
  23  0.346  0.515  0.484-   6 1.39   3 1.39  33 2.21
  24  0.306  0.739  0.482-   3 1.33  14 1.33
  25  0.306  0.290  0.483-   6 1.33   1 1.33
  26  0.531  0.700  0.483-  14 1.39  11 1.40  33 2.20
  27  0.756  0.739  0.481-  20 1.33  11 1.33
  28  0.716  0.515  0.482-  19 1.39  20 1.39  33 2.20
  29  0.031  0.752  0.478-  10 1.09
  30  0.031  0.277  0.479-   7 1.09
  31  0.293  0.015  0.480-  15 1.09
  32  0.768  0.015  0.477-  18 1.09
  33  0.532  0.515  0.523-  26 2.20  28 2.20  21 2.20  23 2.21
  34  0.505  0.497  0.668-  35 1.26
  35  0.620  0.521  0.665-  34 1.26
 
  LATTYP: Found a simple monoclinic cell.
 ALAT       =    15.1504136788
 B/A-ratio  =     1.5915208848
 C/A-ratio  =     1.5812640044
 COS(beta)  =    -0.9487085691
  
  Lattice vectors:
  
 A1 = ( -10.7155203985, -10.7103994896,   0.0000000000)
 A2 = (   0.0000000000,   0.0000000000, -24.1121997833)
 A3 = (  21.4293208288,  10.7103994896,   0.0000000000)


Analysis of symmetry for initial positions (statically):
=====================================================================
 Subroutine PRICEL returns:
 Original cell was already a primitive cell.
 

 Routine SETGRP: Setting up the symmetry group for a 
 simple monoclinic supercell.


 Subroutine GETGRP returns: Found  1 space group operations
 (whereof  1 operations were pure point group operations)
 out of a pool of  4 trial point group operations.


The static configuration has the point symmetry C_1 .


Analysis of symmetry for dynamics (positions and initial velocities):
=====================================================================
 Subroutine PRICEL returns:
 Original cell was already a primitive cell.
 

 Routine SETGRP: Setting up the symmetry group for a 
 simple monoclinic supercell.


 Subroutine GETGRP returns: Found  1 space group operations
 (whereof  1 operations were pure point group operations)
 out of a pool of  4 trial point group operations.


The dynamic configuration has the point symmetry C_1 .


Analysis of structural, dynamic, and magnetic symmetry:
=====================================================================
 Subroutine PRICEL returns:
 Original cell was already a primitive cell.
 

 Routine SETGRP: Setting up the symmetry group for a 
 simple monoclinic supercell.


 Subroutine GETGRP returns: Found  1 space group operations
 (whereof  1 operations were pure point group operations)
 out of a pool of  4 trial point group operations.


The magnetic configuration has the point symmetry C_1 .


 Subroutine INISYM returns: Found  1 space group operations
 (whereof  1 operations are pure point group operations),
 and found     1 'primitive' translations

 
 
 KPOINTS: KPT-Resolved Value to Generate K-Mesh: 0

Automatic generation of k-mesh.
Space group operators:
 irot       det(A)        alpha          n_x          n_y          n_z        tau_x        tau_y        tau_z
    1     1.000000     0.000001     1.000000     0.000000     0.000000     0.000000     0.000000     0.000000
 
 Subroutine IBZKPT returns following result:
 ===========================================
 
 Found      5 irreducible k-points:
 
 Following reciprocal coordinates:
            Coordinates               Weight
  0.000000  0.000000  0.000000      1.000000
  0.333333  0.000000  0.000000      2.000000
  0.000000  0.333333  0.000000      2.000000
  0.333333  0.333333  0.000000      2.000000
 -0.333333  0.333333  0.000000      2.000000
 
 Following cartesian coordinates:
            Coordinates               Weight
  0.000000  0.000000  0.000000      1.000000
  0.031113 -0.000005  0.000000      2.000000
  0.000000  0.031122  0.000000      2.000000
  0.031113  0.031117  0.000000      2.000000
 -0.031113  0.031127  0.000000      2.000000
 

 ----------------------------------------------------------------------------- 
|                                                                             |
|           W    W    AA    RRRRR   N    N  II  N    N   GGGG   !!!           |
|           W    W   A  A   R    R  NN   N  II  NN   N  G    G  !!!           |
|           W    W  A    A  R    R  N N  N  II  N N  N  G       !!!           |
|           W WW W  AAAAAA  RRRRR   N  N N  II  N  N N  G  GGG   !            |
|           WW  WW  A    A  R   R   N   NN  II  N   NN  G    G                |
|           W    W  A    A  R    R  N    N  II  N    N   GGGG   !!!           |
|                                                                             |
|      The number of bands has been changed from the values supplied          |
|      in the INCAR file. This is a result of running the parallel version.   |
|      The orbitals not found in the WAVECAR file will be initialized with    |
|      random numbers, which is usually adequate. For correlated              |
|      calculations, however, you should redo the groundstate calculation.    |
|      I found NBANDS    =       91  now  NBANDS  =      92                   |
|                                                                             |
 ----------------------------------------------------------------------------- 



--------------------------------------------------------------------------------------------------------




 Dimension of arrays:
   k-points           NKPTS =      5   k-points in BZ     NKDIM =      5   number of bands    NBANDS=     92
   number of dos      NEDOS =   2001   number of ions     NIONS =     35
   non local maximal  LDIM  =      5   non local SUM 2l+1 LMDIM =     13
   total plane-waves  NPLWV = 504000
   max r-space proj   IRMAX =   1667   max aug-charges    IRDMAX=  81062
   dimension x,y,z NGX =    60 NGY =   60 NGZ =  140
   dimension x,y,z NGXF=   120 NGYF=  120 NGZF=  280
   support grid    NGXF=   240 NGYF=  240 NGZF=  560
   ions per type =              20   8   4   1   2
   NGX,Y,Z   is equivalent  to a cutoff of   9.31,  9.31,  9.65 a.u.
   NGXF,Y,Z  is equivalent  to a cutoff of  18.62, 18.63, 19.31 a.u.

 SYSTEM =  unknown system                          
 POSCAR =  CONTCAR-o2                              

 Startparameter for this run:
   NWRITE =      2    write-flag & timer
   PREC   = n         normal or accurate (medium, high low for compatibility)
   ISTART =      0    job   : 0-new  1-cont  2-samecut
   ICHARG =      2    charge: 1-file 2-atom 10-const
   ISPIN  =      2    spin polarized calculation?
   LNONCOLLINEAR =      F non collinear calculations
   LSORBIT =      F    spin-orbit coupling
   INIWAV =      1    electr: 0-lowe 1-rand  2-diag
   LASPH  =      F    aspherical Exc in radial PAW
   METAGGA=      F    non-selfconsistent MetaGGA calc.

 Electronic Relaxation 1
   ENCUT  =  520.0 eV  38.22 Ry    6.18 a.u.  19.92 19.91 44.83*2*pi/ulx,y,z
   ENINI  =  520.0     initial cutoff
   ENAUG  =  644.9 eV  augmentation charge cutoff
   NELM   =     60;   NELMIN=  2; NELMDL= -5     # of ELM steps 
   EDIFF  = 0.1E-04   stopping-criterion for ELM
   LREAL  =      T    real-space projection
   NLSPLINE    = F    spline interpolate recip. space projectors
   LCOMPAT=      F    compatible to vasp.4.4
   GGA_COMPAT  = T    GGA compatible to vasp.4.4-vasp.4.6
   LMAXPAW     = -100 max onsite density
   LMAXMIX     =    2 max onsite mixed and CHGCAR
   VOSKOWN=      0    Vosko Wilk Nusair interpolation
   ROPT   =   -0.00050  -0.00050  -0.00050  -0.00050
   ROPT   =   -0.00050
 Ionic relaxation
   EDIFFG = 0.1E-03   stopping-criterion for IOM
   NSW    =      0    number of steps for IOM
   NBLOCK =      1;   KBLOCK =      1    inner block; outer block 
   IBRION =     -1    ionic relax: 0-MD 1-quasi-New 2-CG
   NFREE  =      0    steps in history (QN), initial steepest desc. (CG)
   ISIF   =      2    stress and relaxation
   IWAVPR =     10    prediction:  0-non 1-charg 2-wave 3-comb
   ISYM   =      2    0-nonsym 1-usesym 2-fastsym
   LCORR  =      T    Harris-Foulkes like correction to forces

   POTIM  = 0.5000    time-step for ionic-motion
   TEIN   =    0.0    initial temperature
   TEBEG  =    0.0;   TEEND  =   0.0 temperature during run
   SMASS  =  -3.00    Nose mass-parameter (am)
   estimated Nose-frequenzy (Omega)   =  0.10E-29 period in steps =****** mass=  -0.262E-26a.u.
   SCALEE = 1.0000    scale energy and forces
   NPACO  =    256;   APACO  = 16.0  distance and # of slots for P.C.
   PSTRESS=    0.0 pullay stress

  Mass of Ions in am
   POMASS =  12.01 14.00  1.00121.75 16.00
  Ionic Valenz
   ZVAL   =   4.00  5.00  1.00  5.00  6.00
  Atomic Wigner-Seitz radii
   RWIGS  =  -1.00 -1.00 -1.00 -1.00 -1.00
  virtual crystal weights 
   VCA    =   1.00  1.00  1.00  1.00  1.00
   NELECT =     141.0000    total number of electrons
   NUPDOWN=      -1.0000    fix difference up-down

 DOS related values:
   EMIN   =  10.00;   EMAX   =-10.00  energy-range for DOS
   EFERMI =   0.00
   ISMEAR =     0;   SIGMA  =   0.05  broadening in eV -4-tet -1-fermi 0-gaus

 Electronic relaxation 2 (details)
   IALGO  =     38    algorithm
   LDIAG  =      T    sub-space diagonalisation (order eigenvalues)
   LSUBROT=      F    optimize rotation matrix (better conditioning)
   TURBO    =      0    0=normal 1=particle mesh
   IRESTART =      0    0=no restart 2=restart with 2 vectors
   NREBOOT  =      0    no. of reboots
   NMIN     =      0    reboot dimension
   EREF     =   0.00    reference energy to select bands
   IMIX   =      4    mixing-type and parameters
     AMIX     =   0.40;   BMIX     =  1.00
     AMIX_MAG =   1.60;   BMIX_MAG =  1.00
     AMIN     =   0.10
     WC   =   100.;   INIMIX=   1;  MIXPRE=   1;  MAXMIX= -45

 Intra band minimization:
   WEIMIN = 0.0000     energy-eigenvalue tresh-hold
   EBREAK =  0.27E-07  absolut break condition
   DEPER  =   0.30     relativ break condition  

   TIME   =   0.40     timestep for ELM

  volume/ion in A,a.u.               =      79.05       533.48
  Fermi-wavevector in a.u.,A,eV,Ry     =   0.606949  1.146968  5.012218  0.368388
  Thomas-Fermi vector in A             =   1.661231
 
 Write flags
   LWAVE        =      T    write WAVECAR
   LDOWNSAMPLE  =      F    k-point downsampling of WAVECAR
   LCHARG       =      T    write CHGCAR
   LVTOT        =      F    write LOCPOT, total local potential
   LVHAR        =      T    write LOCPOT, Hartree potential only
   LELF         =      F    write electronic localiz. function (ELF)
   LORBIT       =     11    0 simple, 1 ext, 2 COOP (PROOUT), +10 PAW based schemes


 Dipole corrections
   LMONO  =      F    monopole corrections only (constant potential shift)
   LDIPOL =      F    correct potential (dipole corrections)
   IDIPOL =      0    1-x, 2-y, 3-z, 4-all directions 
   EPSILON=  1.0000000 bulk dielectric constant

 Exchange correlation treatment:
   GGA     =    --    GGA type
   LEXCH   =     8    internal setting for exchange type
   VOSKOWN=      0    Vosko Wilk Nusair interpolation
   LHFCALC =     F    Hartree Fock is set to
   LHFONE  =     F    Hartree Fock one center treatment
   AEXX    =    0.0000 exact exchange contribution

 Linear response parameters
   LEPSILON=     F    determine dielectric tensor
   LRPA    =     F    only Hartree local field effects (RPA)
   LNABLA  =     F    use nabla operator in PAW spheres
   LVEL    =     F    velocity operator in full k-point grid
   LINTERFAST=   F  fast interpolation
   KINTER  =     0    interpolate to denser k-point grid
   CSHIFT  =0.1000    complex shift for real part using Kramers Kronig
   OMEGAMAX=  -1.0    maximum frequency
   DEG_THRESHOLD= 0.2000000E-02 threshold for treating states as degnerate
   RTIME   =   -0.100 relaxation time in fs
  (WPLASMAI=    0.000 imaginary part of plasma frequency in eV, 0.658/RTIME)
   DFIELD  = 0.0000000 0.0000000 0.0000000 field for delta impulse in time
 
 Orbital magnetization related:
   ORBITALMAG=     F  switch on orbital magnetization
   LCHIMAG   =     F  perturbation theory with respect to B field
   DQ        =  0.001000  dq finite difference perturbation B field
   LLRAUG    =     F  two centre corrections for induced B field

 Solvation model:
   LSOL    =     T         switch on solvation model
   EB_K    = 78.400000     relative permittivity of the bulk solvent
   SIGMA_K =  0.600000     width of the dielectric cavity
   NC_K    =  0.002500     cutoff charge density
   TAU     =  0.000000     cavity surface tension
   LAMBDA_D_K    =**********     Debye length in Angstroms
   LRHOB     =     F     write boundcharge  density
   LRHOION     =     F     write ioniccharge density



--------------------------------------------------------------------------------------------------------


 Static calculation
 charge density and potential will be updated during run
 spin polarized calculation
 Variant of blocked Davidson
 Davidson routine will perform the subspace rotation
 perform sub-space diagonalisation
    after iterative eigenvector-optimisation
 modified Broyden-mixing scheme, WC =      100.0
 initial mixing is a Kerker type mixing with AMIX =  0.4000 and BMIX =      1.0000
 Hartree-type preconditioning will be used
 using additional bands           21
 real space projection scheme for non local part
 use partial core corrections
 calculate Harris-corrections to forces 
   (improved forces if not selfconsistent)
 use gradient corrections 
 use of overlap-Matrix (Vanderbilt PP)
 Gauss-broadening in eV      SIGMA  =   0.05


--------------------------------------------------------------------------------------------------------


  energy-cutoff  :      520.00
  volume of cell :     2766.85
      direct lattice vectors                 reciprocal lattice vectors
    10.713800430  0.000000000  0.000000000     0.093337561 -0.000014989  0.000000000
     0.001719968 10.710399490  0.000000000     0.000000000  0.093367199  0.000000000
     0.000000000  0.000000000 24.112199783     0.000000000  0.000000000  0.041472782

  length of vectors
    10.713800430 10.710399628 24.112199783     0.093337562  0.093367199  0.041472782


 
 k-points in units of 2pi/SCALE and weight: KPT-Resolved Value to Generate K-Mesh: 0
   0.00000000  0.00000000  0.00000000       0.111
   0.03111252 -0.00000500  0.00000000       0.222
   0.00000000  0.03112240  0.00000000       0.222
   0.03111252  0.03111740  0.00000000       0.222
  -0.03111252  0.03112740  0.00000000       0.222
 
 k-points in reciprocal lattice and weights: KPT-Resolved Value to Generate K-Mesh: 0
   0.00000000  0.00000000  0.00000000       0.111
   0.33333333  0.00000000  0.00000000       0.222
   0.00000000  0.33333333  0.00000000       0.222
   0.33333333  0.33333333  0.00000000       0.222
  -0.33333333  0.33333333  0.00000000       0.222
 
 position of ions in fractional coordinates (direct lattice) 
   0.42500384  0.25418815  0.48219399
   0.63688180  0.25433638  0.48106910
   0.27053070  0.62056731  0.48216661
   0.14148906  0.58131360  0.47956080
   0.14149783  0.44772122  0.47982263
   0.27058109  0.40865853  0.48250323
   0.03098691  0.37875056  0.47857326
   0.92049285  0.44787404  0.47866600
   0.92050613  0.58148075  0.47852709
   0.03111040  0.65043316  0.47812588
   0.63695064  0.77523361  0.48070292
   0.59767014  0.90424441  0.47841961
   0.46408158  0.90415486  0.47910246
   0.42498674  0.77510301  0.48166676
   0.39504756  0.01463832  0.47877820
   0.46410959  0.12512430  0.47941998
   0.59767488  0.12524276  0.47863069
   0.66674188  0.01475634  0.47731659
   0.79144003  0.40874731  0.48064584
   0.79148188  0.62070645  0.48052594
   0.53089199  0.32977642  0.48355549
   0.75556005  0.29009587  0.48095249
   0.34606463  0.51462662  0.48415850
   0.30631980  0.73925341  0.48226025
   0.30630488  0.28996201  0.48283495
   0.53101435  0.69967965  0.48300651
   0.75565666  0.73941843  0.48069027
   0.71588053  0.51475124  0.48225183
   0.03124694  0.75213792  0.47812532
   0.03089580  0.27708570  0.47888034
   0.29344058  0.01475314  0.47953505
   0.76838684  0.01474403  0.47672493
   0.53218832  0.51512273  0.52325337
   0.50521455  0.49699551  0.66763197
   0.62022858  0.52111250  0.66480105
 
 position of ions in cartesian coordinates  (Angst):
   4.55384349  2.72245661 11.62675776
   6.82386199  2.72404427 11.59963435
   2.89947928  6.64652380 11.62609755
   1.51688538  6.22610085 11.56326586
   1.51674955  4.79527316 11.56957909
   2.89965467  4.37689613 11.63421417
   0.33263899  4.05656984 11.53945396
   9.86274701  4.79690991 11.54169017
   9.86311912  6.22789112 11.53834090
   0.33442933  6.96639901 11.52866681
   6.82549538  8.30306166 11.59080492
   6.40487386  9.68481887 11.53574917
   4.97363258  9.68385974 11.55221435
   4.55455629  8.30166285 11.61404526
   4.23248592  0.15678222 11.54439553
   4.97259270  1.34013124 11.55987046
   6.40358479  1.34139995 11.54083890
   7.14336479  0.15804632 11.50915294
   8.48003360  4.37784703 11.58942844
   8.48084651  6.64801400 11.58653757
   5.68843803  3.53203715 11.65958657
   8.09541852  3.10704269 11.59682251
   3.70855255  5.51185665 11.67412648
   3.28312070  7.91769929 11.62835553
   3.28218812  3.10560900 11.64221278
   5.69038521  7.49384859 11.64634950
   8.09722646  7.91946680 11.59049971
   7.67068653  5.51319144 11.62815246
   0.33606718  8.05569759 11.52865335
   0.33148801  2.96769856 11.54685835
   3.14388923  0.15801207 11.56264498
   8.23236858  0.15791450 11.49488670
   5.70264547  5.51717017 12.61678981
   5.41362271  5.32302048 16.09807546
   6.64590156  5.58132311 16.02981566
 


--------------------------------------------------------------------------------------------------------


 k-point  1 :   0.0000 0.0000 0.0000  plane waves:   74341
 k-point  2 :   0.3333 0.0000 0.0000  plane waves:   74502
 k-point  3 :   0.0000 0.3333 0.0000  plane waves:   74496
 k-point  4 :   0.3333 0.3333 0.0000  plane waves:   74520
 k-point  5 :  -0.3333 0.3333 0.0000  plane waves:   74522

 maximum and minimum number of plane-waves per node :      2891     2836

 maximum number of plane-waves:     74522
 maximum index in each direction: 
   IXMAX=   20   IYMAX=   19   IZMAX=   44
   IXMIN=  -20   IYMIN=  -20   IZMIN=  -44


 real space projection operators:
  total allocation   :       2210.59 KBytes
  max/ min on nodes  :        106.91         64.03


 parallel 3D FFT for wavefunctions:
    minimum data exchange during FFTs selected (reduces bandwidth)
 parallel 3D FFT for charge:
    minimum data exchange during FFTs selected (reduces bandwidth)


 total amount of memory used by VASP MPI-rank0    78044. kBytes
=======================================================================

   base      :      30000. kBytes
   nonlr-proj:       1071. kBytes
   fftplans  :      13059. kBytes
   grid      :      12568. kBytes
   one-center:         32. kBytes
   wavefun   :      21314. kBytes
 
     INWAV:  cpu time    0.0000: real time    0.0000
 Broyden mixing: mesh for mixing (old mesh)
   NGX = 39   NGY = 39   NGZ = 89
  (NGX  =120   NGY  =120   NGZ  =280)
  gives a total of 135369 points

 initial charge density was supplied:
 charge density of overlapping atoms calculated
 number of electron     141.0000000 magnetization      35.0000000
 keeping initial charge density in first step


--------------------------------------------------------------------------------------------------------


 Maximum index for non-local projection operator          122
 Maximum index for augmentation-charges          789 (set IRDMAX)


--------------------------------------------------------------------------------------------------------


 First call to EWALD:  gamma=   0.126
 Maximum number of real-space cells 3x 3x 2
 Maximum number of reciprocal cells 2x 2x 4

    FEWALD:  cpu time    0.0015: real time    0.0015


--------------------------------------- Iteration      1(   1)  ---------------------------------------


    POTLOK:  cpu time    3.1249: real time    3.2824
    SETDIJ:  cpu time    0.1373: real time    0.1474
     EDDAV:  cpu time    3.5631: real time    3.8126
       DOS:  cpu time    0.0028: real time    0.0057
    --------------------------------------------
      LOOP:  cpu time    6.8282: real time    7.2481

 eigenvalue-minimisations  :  2264
 total energy-change (2. order) : 0.1333131E+04  (-0.4693763E+04)
 number of electron     141.0000000 magnetization      35.0000000
 augmentation part      141.0000000 magnetization      35.0000000

 Free energy of the ion-electron system (eV)
  ---------------------------------------------------
  alpha Z        PSCENC =        31.96594715
  Ewald energy   TEWEN  =     21946.66524896
  -Hartree energ DENC   =    -26562.20008567
  -exchange      EXHF   =         0.00000000
  -V(xc)+E(xc)   XCENC  =       444.94922206
  PAW double counting   =      4669.83908134    -4640.18868859
  entropy T*S    EENTRO =        -0.01434058
  eigenvalues    EBANDS =      -656.23900849
  atomic energy  EATOM  =      6123.88131970
  Solvation  Ediel_sol  =       -25.52723638
  ---------------------------------------------------
  free energy    TOTEN  =      1333.13145949 eV

  energy without entropy =     1333.14580007  energy(sigma->0) =     1333.13862978


--------------------------------------------------------------------------------------------------------




--------------------------------------- Iteration      1(   2)  ---------------------------------------


     EDDAV:  cpu time    4.4071: real time    4.4776
       DOS:  cpu time    0.0016: real time    0.0016
    --------------------------------------------
      LOOP:  cpu time    4.4088: real time    4.4792

 eigenvalue-minimisations  :  2904
 total energy-change (2. order) :-0.1207635E+04  (-0.1124456E+04)
 number of electron     141.0000000 magnetization      35.0000000
 augmentation part      141.0000000 magnetization      35.0000000

 Free energy of the ion-electron system (eV)
  ---------------------------------------------------
  alpha Z        PSCENC =        31.96594715
  Ewald energy   TEWEN  =     21946.66524896
  -Hartree energ DENC   =    -26562.20008567
  -exchange      EXHF   =         0.00000000
  -V(xc)+E(xc)   XCENC  =       444.94922206
  PAW double counting   =      4669.83908134    -4640.18868859
  entropy T*S    EENTRO =        -0.00852298
  eigenvalues    EBANDS =     -1863.87958619
  atomic energy  EATOM  =      6123.88131970
  Solvation  Ediel_sol  =       -25.52723638
  ---------------------------------------------------
  free energy    TOTEN  =       125.49669939 eV

  energy without entropy =      125.50522237  energy(sigma->0) =      125.50096088


--------------------------------------------------------------------------------------------------------




--------------------------------------- Iteration      1(   3)  ---------------------------------------


     EDDAV:  cpu time    3.6477: real time    3.6866
       DOS:  cpu time    0.0016: real time    0.0016
    --------------------------------------------
      LOOP:  cpu time    3.6493: real time    3.6882

 eigenvalue-minimisations  :  2328
 total energy-change (2. order) :-0.3807488E+03  (-0.3780830E+03)
 number of electron     141.0000000 magnetization      35.0000000
 augmentation part      141.0000000 magnetization      35.0000000

 Free energy of the ion-electron system (eV)
  ---------------------------------------------------
  alpha Z        PSCENC =        31.96594715
  Ewald energy   TEWEN  =     21946.66524896
  -Hartree energ DENC   =    -26562.20008567
  -exchange      EXHF   =         0.00000000
  -V(xc)+E(xc)   XCENC  =       444.94922206
  PAW double counting   =      4669.83908134    -4640.18868859
  entropy T*S    EENTRO =        -0.00665503
  eigenvalues    EBANDS =     -2244.63022811
  atomic energy  EATOM  =      6123.88131970
  Solvation  Ediel_sol  =       -25.52723638
  ---------------------------------------------------
  free energy    TOTEN  =      -255.25207458 eV

  energy without entropy =     -255.24541955  energy(sigma->0) =     -255.24874706


--------------------------------------------------------------------------------------------------------




--------------------------------------- Iteration      1(   4)  ---------------------------------------


     EDDAV:  cpu time    3.5637: real time    3.6036
       DOS:  cpu time    0.0017: real time    0.0017
    --------------------------------------------
      LOOP:  cpu time    3.5654: real time    3.6053

 eigenvalue-minimisations  :  2224
 total energy-change (2. order) :-0.2279085E+02  (-0.2204821E+02)
 number of electron     141.0000000 magnetization      35.0000000
 augmentation part      141.0000000 magnetization      35.0000000

 Free energy of the ion-electron system (eV)
  ---------------------------------------------------
  alpha Z        PSCENC =        31.96594715
  Ewald energy   TEWEN  =     21946.66524896
  -Hartree energ DENC   =    -26562.20008567
  -exchange      EXHF   =         0.00000000
  -V(xc)+E(xc)   XCENC  =       444.94922206
  PAW double counting   =      4669.83908134    -4640.18868859
  entropy T*S    EENTRO =        -0.01972682
  eigenvalues    EBANDS =     -2267.40800135
  atomic energy  EATOM  =      6123.88131970
  Solvation  Ediel_sol  =       -25.52723638
  ---------------------------------------------------
  free energy    TOTEN  =      -278.04291961 eV

  energy without entropy =     -278.02319279  energy(sigma->0) =     -278.03305620


--------------------------------------------------------------------------------------------------------




--------------------------------------- Iteration      1(   5)  ---------------------------------------


     EDDAV:  cpu time    3.8547: real time    3.9379
       DOS:  cpu time    0.0017: real time    0.0017
    CHARGE:  cpu time    0.2473: real time    0.2496
    MIXING:  cpu time    0.0037: real time    0.0060
    --------------------------------------------
      LOOP:  cpu time    4.1075: real time    4.1953

 eigenvalue-minimisations  :  2488
 total energy-change (2. order) :-0.6230280E+00  (-0.6062469E+00)
 number of electron     141.0000001 magnetization      31.7480043
 augmentation part        4.6549723 magnetization      29.2123987

 Broyden mixing:
  rms(total) = 0.38621E+01    rms(broyden)= 0.38614E+01
  rms(prec ) = 0.39863E+01
  weight for this iteration     100.00

 Free energy of the ion-electron system (eV)
  ---------------------------------------------------
  alpha Z        PSCENC =        31.96594715
  Ewald energy   TEWEN  =     21946.66524896
  -Hartree energ DENC   =    -26562.20008567
  -exchange      EXHF   =         0.00000000
  -V(xc)+E(xc)   XCENC  =       444.94922206
  PAW double counting   =      4669.83908134    -4640.18868859
  entropy T*S    EENTRO =        -0.02660414
  eigenvalues    EBANDS =     -2268.02415203
  atomic energy  EATOM  =      6123.88131970
  Solvation  Ediel_sol  =       -25.52723638
  ---------------------------------------------------
  free energy    TOTEN  =      -278.66594761 eV

  energy without entropy =     -278.63934347  energy(sigma->0) =     -278.65264554


--------------------------------------------------------------------------------------------------------




--------------------------------------- Iteration      1(   6)  ---------------------------------------


    POTLOK:  cpu time    3.1026: real time    3.1410
    SETDIJ:  cpu time    0.1347: real time    0.1361
     EDDAV:  cpu time    3.2906: real time    3.3253
       DOS:  cpu time    0.0015: real time    0.0015
    CHARGE:  cpu time    0.2428: real time    0.2448
    MIXING:  cpu time    0.0041: real time    0.0066
    --------------------------------------------
      LOOP:  cpu time    6.7762: real time    6.8554

 eigenvalue-minimisations  :  2012
 total energy-change (2. order) : 0.9837662E+02  (-0.2026592E+02)
 number of electron     141.0000001 magnetization      29.1195036
 augmentation part        4.8888520 magnetization      27.9579757

 Broyden mixing:
  rms(total) = 0.26029E+01    rms(broyden)= 0.26014E+01
  rms(prec ) = 0.27337E+01
  weight for this iteration     100.00

 eigenvalues of (default mixing * dielectric matrix)
  average eigenvalue GAMMA=   0.8629
  0.8629

 Free energy of the ion-electron system (eV)
  ---------------------------------------------------
  alpha Z        PSCENC =        31.96594715
  Ewald energy   TEWEN  =     21946.66524896
  -Hartree energ DENC   =    -26779.47705187
  -exchange      EXHF   =         0.00000000
  -V(xc)+E(xc)   XCENC  =       521.56361835
  PAW double counting   =      7473.34851834    -7446.25549366
  entropy T*S    EENTRO =        -0.00000105
  eigenvalues    EBANDS =     -2013.22705774
  atomic energy  EATOM  =      6123.88131970
  Solvation  Ediel_sol  =       -38.75437729
  ---------------------------------------------------
  free energy    TOTEN  =      -180.28932911 eV

  energy without entropy =     -180.28932807  energy(sigma->0) =     -180.28932859


--------------------------------------------------------------------------------------------------------




--------------------------------------- Iteration      1(   7)  ---------------------------------------


    POTLOK:  cpu time    3.2026: real time    3.2391
    SETDIJ:  cpu time    0.1345: real time    0.1356
     EDDAV:  cpu time    3.5292: real time    3.5597
       DOS:  cpu time    0.0018: real time    0.0018
    CHARGE:  cpu time    0.2443: real time    0.2464
    MIXING:  cpu time    0.0038: real time    0.0039
    --------------------------------------------
      LOOP:  cpu time    7.1163: real time    7.1865

 eigenvalue-minimisations  :  2184
 total energy-change (2. order) :-0.1296976E+02  (-0.5782719E+01)
 number of electron     141.0000001 magnetization      26.2402681
 augmentation part        3.9563611 magnetization      25.0180509

 Broyden mixing:
  rms(total) = 0.21224E+01    rms(broyden)= 0.21201E+01
  rms(prec ) = 0.23157E+01
  weight for this iteration     100.00

 eigenvalues of (default mixing * dielectric matrix)
  average eigenvalue GAMMA=   0.8419
  1.1621  0.5218

 Free energy of the ion-electron system (eV)
  ---------------------------------------------------
  alpha Z        PSCENC =        31.96594715
  Ewald energy   TEWEN  =     21946.66524896
  -Hartree energ DENC   =    -26890.69418013
  -exchange      EXHF   =         0.00000000
  -V(xc)+E(xc)   XCENC  =       517.14413246
  PAW double counting   =      9433.91054554    -9408.51321977
  entropy T*S    EENTRO =        -0.01152994
  eigenvalues    EBANDS =     -1875.44648263
  atomic energy  EATOM  =      6123.88131970
  Solvation  Ediel_sol  =       -72.16086777
  ---------------------------------------------------
  free energy    TOTEN  =      -193.25908642 eV

  energy without entropy =     -193.24755648  energy(sigma->0) =     -193.25332145


--------------------------------------------------------------------------------------------------------




--------------------------------------- Iteration      1(   8)  ---------------------------------------


    POTLOK:  cpu time    3.2026: real time    3.2354
    SETDIJ:  cpu time    0.1330: real time    0.1344
     EDDAV:  cpu time    3.4007: real time    3.4386
       DOS:  cpu time    0.0017: real time    0.0017
    CHARGE:  cpu time    0.2428: real time    0.2451
    MIXING:  cpu time    0.0041: real time    0.0041
    --------------------------------------------
      LOOP:  cpu time    6.9849: real time    7.0595

 eigenvalue-minimisations  :  2080
 total energy-change (2. order) :-0.1124961E+02  (-0.2953078E+01)
 number of electron     141.0000001 magnetization      23.1589943
 augmentation part        4.5175748 magnetization      21.9475297

 Broyden mixing:
  rms(total) = 0.15128E+01    rms(broyden)= 0.15104E+01
  rms(prec ) = 0.16351E+01
  weight for this iteration     100.00

 eigenvalues of (default mixing * dielectric matrix)
  average eigenvalue GAMMA=   0.8666
  1.4354  0.8301  0.3343

 Free energy of the ion-electron system (eV)
  ---------------------------------------------------
  alpha Z        PSCENC =        31.96594715
  Ewald energy   TEWEN  =     21946.66524896
  -Hartree energ DENC   =    -26992.51048830
  -exchange      EXHF   =         0.00000000
  -V(xc)+E(xc)   XCENC  =       508.83263235
  PAW double counting   =     11373.95859535   -11349.00660166
  entropy T*S    EENTRO =        -0.00019502
  eigenvalues    EBANDS =     -1770.99194560
  atomic energy  EATOM  =      6123.88131970
  Solvation  Ediel_sol  =       -77.30320605
  ---------------------------------------------------
  free energy    TOTEN  =      -204.50869313 eV

  energy without entropy =     -204.50849810  energy(sigma->0) =     -204.50859562


--------------------------------------------------------------------------------------------------------




--------------------------------------- Iteration      1(   9)  ---------------------------------------


    POTLOK:  cpu time    3.1424: real time    3.1871
    SETDIJ:  cpu time    0.1332: real time    0.1348
     EDDAV:  cpu time    3.3352: real time    3.3753
       DOS:  cpu time    0.0017: real time    0.0017
    CHARGE:  cpu time    0.2446: real time    0.2469
    MIXING:  cpu time    0.0042: real time    0.0065
    --------------------------------------------
      LOOP:  cpu time    6.8612: real time    6.9522

 eigenvalue-minimisations  :  2024
 total energy-change (2. order) :-0.1236962E+02  (-0.1876251E+01)
 number of electron     141.0000001 magnetization      22.2435929
 augmentation part        4.0127154 magnetization      19.4828505

 Broyden mixing:
  rms(total) = 0.12852E+01    rms(broyden)= 0.12835E+01
  rms(prec ) = 0.13226E+01
  weight for this iteration     100.00

 eigenvalues of (default mixing * dielectric matrix)
  average eigenvalue GAMMA=   0.6906
  1.3453  0.7471  0.4133  0.2569

 Free energy of the ion-electron system (eV)
  ---------------------------------------------------
  alpha Z        PSCENC =        31.96594715
  Ewald energy   TEWEN  =     21946.66524896
  -Hartree energ DENC   =    -27040.85422284
  -exchange      EXHF   =         0.00000000
  -V(xc)+E(xc)   XCENC  =       502.16040383
  PAW double counting   =     12878.76306889   -12854.26974743
  entropy T*S    EENTRO =        -0.01670088
  eigenvalues    EBANDS =     -1707.37132160
  atomic energy  EATOM  =      6123.88131970
  Solvation  Ediel_sol  =       -97.80230780
  ---------------------------------------------------
  free energy    TOTEN  =      -216.87831203 eV

  energy without entropy =     -216.86161115  energy(sigma->0) =     -216.86996159


--------------------------------------------------------------------------------------------------------




--------------------------------------- Iteration      1(  10)  ---------------------------------------


    POTLOK:  cpu time    3.0359: real time    3.1133
    SETDIJ:  cpu time    0.1332: real time    0.1346
     EDDAV:  cpu time    3.4724: real time    3.5069
       DOS:  cpu time    0.0017: real time    0.0017
    CHARGE:  cpu time    0.2499: real time    0.2522
    MIXING:  cpu time    0.0043: real time    0.0044
    --------------------------------------------
      LOOP:  cpu time    6.8974: real time    7.0132

 eigenvalue-minimisations  :  2128
 total energy-change (2. order) :-0.1078911E+02  (-0.3337164E+00)
 number of electron     141.0000001 magnetization      18.5304082
 augmentation part        4.0952188 magnetization      15.8779392

 Broyden mixing:
  rms(total) = 0.94754E+00    rms(broyden)= 0.94719E+00
  rms(prec ) = 0.96005E+00
  weight for this iteration     100.00

 eigenvalues of (default mixing * dielectric matrix)
  average eigenvalue GAMMA=   0.9410
  1.3365  1.1561  1.1561  0.7420  0.3141

 Free energy of the ion-electron system (eV)
  ---------------------------------------------------
  alpha Z        PSCENC =        31.96594715
  Ewald energy   TEWEN  =     21946.66524896
  -Hartree energ DENC   =    -27041.82665105
  -exchange      EXHF   =         0.00000000
  -V(xc)+E(xc)   XCENC  =       493.77948824
  PAW double counting   =     13030.38358282   -13005.72114803
  entropy T*S    EENTRO =        -0.00794113
  eigenvalues    EBANDS =     -1710.71646794
  atomic energy  EATOM  =      6123.88131970
  Solvation  Ediel_sol  =       -96.07079939
  ---------------------------------------------------
  free energy    TOTEN  =      -227.66742069 eV

  energy without entropy =     -227.65947956  energy(sigma->0) =     -227.66345013


--------------------------------------------------------------------------------------------------------




--------------------------------------- Iteration      1(  11)  ---------------------------------------


    POTLOK:  cpu time    3.1321: real time    3.1702
    SETDIJ:  cpu time    0.1332: real time    0.1346
     EDDAV:  cpu time    3.3181: real time    3.3521
       DOS:  cpu time    0.0016: real time    0.0017
    CHARGE:  cpu time    0.2422: real time    0.2444
    MIXING:  cpu time    0.0045: real time    0.0045
    --------------------------------------------
      LOOP:  cpu time    6.8317: real time    6.9075

 eigenvalue-minimisations  :  2028
 total energy-change (2. order) :-0.1389537E+02  (-0.8098609E+00)
 number of electron     141.0000001 magnetization      16.2743146
 augmentation part        4.1281846 magnetization      13.7102023

 Broyden mixing:
  rms(total) = 0.81966E+00    rms(broyden)= 0.81953E+00
  rms(prec ) = 0.82658E+00
  weight for this iteration     100.00

 eigenvalues of (default mixing * dielectric matrix)
  average eigenvalue GAMMA=   1.0174
  2.2284  1.4055  0.3118  0.7494  0.7494  0.6599

 Free energy of the ion-electron system (eV)
  ---------------------------------------------------
  alpha Z        PSCENC =        31.96594715
  Ewald energy   TEWEN  =     21946.66524896
  -Hartree energ DENC   =    -27057.18901980
  -exchange      EXHF   =         0.00000000
  -V(xc)+E(xc)   XCENC  =       485.18605811
  PAW double counting   =     13792.90982932   -13767.82940034
  entropy T*S    EENTRO =        -0.01032724
  eigenvalues    EBANDS =     -1701.42049114
  atomic energy  EATOM  =      6123.88131970
  Solvation  Ediel_sol  =       -95.72195670
  ---------------------------------------------------
  free energy    TOTEN  =      -241.56279198 eV

  energy without entropy =     -241.55246474  energy(sigma->0) =     -241.55762836


--------------------------------------------------------------------------------------------------------




--------------------------------------- Iteration      1(  12)  ---------------------------------------


    POTLOK:  cpu time    3.0511: real time    3.1263
    SETDIJ:  cpu time    0.1327: real time    0.1342
     EDDAV:  cpu time    3.4295: real time    3.4647
       DOS:  cpu time    0.0016: real time    0.0017
    CHARGE:  cpu time    0.2412: real time    0.2439
    MIXING:  cpu time    0.0046: real time    0.0046
    --------------------------------------------
      LOOP:  cpu time    6.8608: real time    6.9754

 eigenvalue-minimisations  :  2112
 total energy-change (2. order) :-0.9288983E+01  (-0.3049477E+00)
 number of electron     141.0000001 magnetization      14.5841201
 augmentation part        4.1271314 magnetization      12.0492012

 Broyden mixing:
  rms(total) = 0.70149E+00    rms(broyden)= 0.70148E+00
  rms(prec ) = 0.70770E+00
  weight for this iteration     100.00

 eigenvalues of (default mixing * dielectric matrix)
  average eigenvalue GAMMA=   1.0527
  2.3729  1.4763  0.9244  0.9244  0.3126  0.7230  0.6355

 Free energy of the ion-electron system (eV)
  ---------------------------------------------------
  alpha Z        PSCENC =        31.96594715
  Ewald energy   TEWEN  =     21946.66524896
  -Hartree energ DENC   =    -27069.91290894
  -exchange      EXHF   =         0.00000000
  -V(xc)+E(xc)   XCENC  =       479.02516332
  PAW double counting   =     14258.33829402   -14233.21162292
  entropy T*S    EENTRO =        -0.01149976
  eigenvalues    EBANDS =     -1693.84996893
  atomic energy  EATOM  =      6123.88131970
  Solvation  Ediel_sol  =       -93.74174748
  ---------------------------------------------------
  free energy    TOTEN  =      -250.85177490 eV

  energy without entropy =     -250.84027514  energy(sigma->0) =     -250.84602502


--------------------------------------------------------------------------------------------------------




--------------------------------------- Iteration      1(  13)  ---------------------------------------


    POTLOK:  cpu time    2.9304: real time    2.9648
    SETDIJ:  cpu time    0.1330: real time    0.1345
     EDDAV:  cpu time    3.2456: real time    3.2793
       DOS:  cpu time    0.0018: real time    0.0019
    CHARGE:  cpu time    0.2444: real time    0.2464
    MIXING:  cpu time    0.0045: real time    0.0047
    --------------------------------------------
      LOOP:  cpu time    6.5597: real time    6.6315

 eigenvalue-minimisations  :  1968
 total energy-change (2. order) :-0.4880931E+01  (-0.2786170E+00)
 number of electron     141.0000001 magnetization      13.5845430
 augmentation part        4.2780053 magnetization      12.7484326

 Broyden mixing:
  rms(total) = 0.89117E+00    rms(broyden)= 0.88880E+00
  rms(prec ) = 0.93111E+00
  weight for this iteration     100.00

 eigenvalues of (default mixing * dielectric matrix)
  average eigenvalue GAMMA=   0.9694
  2.4455  1.4418  0.9879  0.9879  0.7563  0.6448  0.3122  0.1784

 Free energy of the ion-electron system (eV)
  ---------------------------------------------------
  alpha Z        PSCENC =        31.96594715
  Ewald energy   TEWEN  =     21946.66524896
  -Hartree energ DENC   =    -27073.53608385
  -exchange      EXHF   =         0.00000000
  -V(xc)+E(xc)   XCENC  =       475.53287011
  PAW double counting   =     14257.94130735   -14232.84729853
  entropy T*S    EENTRO =        -0.00678546
  eigenvalues    EBANDS =     -1700.26748669
  atomic energy  EATOM  =      6123.88131970
  Solvation  Ediel_sol  =       -85.06174419
  ---------------------------------------------------
  free energy    TOTEN  =      -255.73270545 eV

  energy without entropy =     -255.72591999  energy(sigma->0) =     -255.72931272


--------------------------------------------------------------------------------------------------------




--------------------------------------- Iteration      1(  14)  ---------------------------------------


    POTLOK:  cpu time    2.9031: real time    2.9388
    SETDIJ:  cpu time    0.1331: real time    0.1345
     EDDAV:  cpu time    3.3121: real time    3.3462
       DOS:  cpu time    0.0016: real time    0.0016
    CHARGE:  cpu time    0.2469: real time    0.2491
    MIXING:  cpu time    0.0048: real time    0.0049
    --------------------------------------------
      LOOP:  cpu time    6.6017: real time    6.6750

 eigenvalue-minimisations  :  2028
 total energy-change (2. order) : 0.6725927E+00  (-0.5170296E-01)
 number of electron     141.0000001 magnetization      10.0195757
 augmentation part        4.2729259 magnetization       9.1780008

 Broyden mixing:
  rms(total) = 0.74515E+00    rms(broyden)= 0.74486E+00
  rms(prec ) = 0.79371E+00
  weight for this iteration     100.00

 eigenvalues of (default mixing * dielectric matrix)
  average eigenvalue GAMMA=   1.0386
  2.6111  1.7700  1.0222  1.0222  0.7536  0.6529  0.6529  0.3131  0.5496

 Free energy of the ion-electron system (eV)
  ---------------------------------------------------
  alpha Z        PSCENC =        31.96594715
  Ewald energy   TEWEN  =     21946.66524896
  -Hartree energ DENC   =    -27074.21681359
  -exchange      EXHF   =         0.00000000
  -V(xc)+E(xc)   XCENC  =       476.63102072
  PAW double counting   =     14262.12510765   -14237.04335193
  entropy T*S    EENTRO =        -0.00000365
  eigenvalues    EBANDS =     -1703.02805895
  atomic energy  EATOM  =      6123.88131970
  Solvation  Ediel_sol  =       -82.04052885
  ---------------------------------------------------
  free energy    TOTEN  =      -255.06011279 eV

  energy without entropy =     -255.06010914  energy(sigma->0) =     -255.06011097


--------------------------------------------------------------------------------------------------------




--------------------------------------- Iteration      1(  15)  ---------------------------------------


    POTLOK:  cpu time    3.0363: real time    3.1545
    SETDIJ:  cpu time    0.1337: real time    0.1350
     EDDAV:  cpu time    3.2401: real time    3.2735
       DOS:  cpu time    0.0014: real time    0.0014
    CHARGE:  cpu time    0.2410: real time    0.2430
    MIXING:  cpu time    0.0049: real time    0.0050
    --------------------------------------------
      LOOP:  cpu time    6.6575: real time    6.8123

 eigenvalue-minimisations  :  1968
 total energy-change (2. order) :-0.6828405E+01  (-0.2570693E+00)
 number of electron     141.0000001 magnetization       4.3689681
 augmentation part        4.2598467 magnetization       3.5420377

 Broyden mixing:
  rms(total) = 0.54961E+00    rms(broyden)= 0.54958E+00
  rms(prec ) = 0.60492E+00
  weight for this iteration     100.00

 eigenvalues of (default mixing * dielectric matrix)
  average eigenvalue GAMMA=   1.3483
  4.8711  2.2383  1.0512  1.0512  1.0992  1.0992  0.3133  0.6867  0.6072  0.4660

 Free energy of the ion-electron system (eV)
  ---------------------------------------------------
  alpha Z        PSCENC =        31.96594715
  Ewald energy   TEWEN  =     21946.66524896
  -Hartree energ DENC   =    -27070.74702257
  -exchange      EXHF   =         0.00000000
  -V(xc)+E(xc)   XCENC  =       471.24833450
  PAW double counting   =     14124.92265045   -14099.74845725
  entropy T*S    EENTRO =        -0.00000000
  eigenvalues    EBANDS =     -1719.23781176
  atomic energy  EATOM  =      6123.88131970
  Solvation  Ediel_sol  =       -70.83872711
  ---------------------------------------------------
  free energy    TOTEN  =      -261.88851794 eV

  energy without entropy =     -261.88851794  energy(sigma->0) =     -261.88851794


--------------------------------------------------------------------------------------------------------




--------------------------------------- Iteration      1(  16)  ---------------------------------------


    POTLOK:  cpu time    3.0921: real time    3.1291
    SETDIJ:  cpu time    0.1325: real time    0.1339
     EDDAV:  cpu time    3.2971: real time    3.3302
       DOS:  cpu time    0.0017: real time    0.0017
    CHARGE:  cpu time    0.2428: real time    0.2451
    MIXING:  cpu time    0.0047: real time    0.0047
    --------------------------------------------
      LOOP:  cpu time    6.7709: real time    6.8448

 eigenvalue-minimisations  :  1988
 total energy-change (2. order) :-0.8391389E+01  (-0.9428776E+00)
 number of electron     141.0000001 magnetization       3.3060215
 augmentation part        4.0731076 magnetization       1.6408014

 Broyden mixing:
  rms(total) = 0.69646E+00    rms(broyden)= 0.69307E+00
  rms(prec ) = 0.71112E+00
  weight for this iteration     100.00

 eigenvalues of (default mixing * dielectric matrix)
  average eigenvalue GAMMA=   1.3844
  6.0705  2.0897  1.4987  1.0391  1.0391  0.8521  0.6369  0.6369  0.6606  0.3134
  0.3919

 Free energy of the ion-electron system (eV)
  ---------------------------------------------------
  alpha Z        PSCENC =        31.96594715
  Ewald energy   TEWEN  =     21946.66524896
  -Hartree energ DENC   =    -27058.67044072
  -exchange      EXHF   =         0.00000000
  -V(xc)+E(xc)   XCENC  =       464.63225762
  PAW double counting   =     13884.46700692   -13859.27443510
  entropy T*S    EENTRO =        -0.00666971
  eigenvalues    EBANDS =     -1744.55017066
  atomic energy  EATOM  =      6123.88131970
  Solvation  Ediel_sol  =       -59.38997143
  ---------------------------------------------------
  free energy    TOTEN  =      -270.27990728 eV

  energy without entropy =     -270.27323757  energy(sigma->0) =     -270.27657242


--------------------------------------------------------------------------------------------------------




--------------------------------------- Iteration      1(  17)  ---------------------------------------


    POTLOK:  cpu time    2.9425: real time    2.9785
    SETDIJ:  cpu time    0.1325: real time    0.1338
     EDDAV:  cpu time    3.5487: real time    3.5844
       DOS:  cpu time    0.0016: real time    0.0016
    CHARGE:  cpu time    0.2427: real time    0.2452
    MIXING:  cpu time    0.0053: real time    0.0053
    --------------------------------------------
      LOOP:  cpu time    6.8733: real time    6.9488

 eigenvalue-minimisations  :  2196
 total energy-change (2. order) :-0.5513578E+00  (-0.2696332E-01)
 number of electron     141.0000001 magnetization       1.9868287
 augmentation part        4.0684478 magnetization       0.5169253

 Broyden mixing:
  rms(total) = 0.62755E+00    rms(broyden)= 0.62738E+00
  rms(prec ) = 0.64736E+00
  weight for this iteration     100.00

 eigenvalues of (default mixing * dielectric matrix)
  average eigenvalue GAMMA=   1.4564
  7.0968  2.1317  1.3801  1.0993  1.0993  0.9309  0.9309  0.3134  0.7690  0.6445
  0.6445  0.4366

 Free energy of the ion-electron system (eV)
  ---------------------------------------------------
  alpha Z        PSCENC =        31.96594715
  Ewald energy   TEWEN  =     21946.66524896
  -Hartree energ DENC   =    -27055.71282277
  -exchange      EXHF   =         0.00000000
  -V(xc)+E(xc)   XCENC  =       464.29902038
  PAW double counting   =     13882.76335664   -13857.58147533
  entropy T*S    EENTRO =        -0.00687515
  eigenvalues    EBANDS =     -1748.96886182
  atomic energy  EATOM  =      6123.88131970
  Solvation  Ediel_sol  =       -58.13612285
  ---------------------------------------------------
  free energy    TOTEN  =      -270.83126510 eV

  energy without entropy =     -270.82438995  energy(sigma->0) =     -270.82782752


--------------------------------------------------------------------------------------------------------




--------------------------------------- Iteration      1(  18)  ---------------------------------------


    POTLOK:  cpu time    3.0016: real time    3.0372
    SETDIJ:  cpu time    0.1324: real time    0.1338
     EDDAV:  cpu time    3.5292: real time    3.5656
       DOS:  cpu time    0.0017: real time    0.0017
    CHARGE:  cpu time    0.2429: real time    0.2451
    MIXING:  cpu time    0.0052: real time    0.0052
    --------------------------------------------
      LOOP:  cpu time    6.9130: real time    6.9886

 eigenvalue-minimisations  :  2184
 total energy-change (2. order) :-0.1991620E+01  (-0.4405574E-01)
 number of electron     141.0000001 magnetization       1.7345539
 augmentation part        4.0766276 magnetization       0.3047551

 Broyden mixing:
  rms(total) = 0.38426E+00    rms(broyden)= 0.38422E+00
  rms(prec ) = 0.40829E+00
  weight for this iteration     100.00

 eigenvalues of (default mixing * dielectric matrix)
  average eigenvalue GAMMA=   1.5160
  7.7554  2.1955  1.4784  1.4784  1.1101  1.1101  1.0428  0.7525  0.7525  0.3134
  0.7095  0.5843  0.4247

 Free energy of the ion-electron system (eV)
  ---------------------------------------------------
  alpha Z        PSCENC =        31.96594715
  Ewald energy   TEWEN  =     21946.66524896
  -Hartree energ DENC   =    -27042.33896215
  -exchange      EXHF   =         0.00000000
  -V(xc)+E(xc)   XCENC  =       462.19934951
  PAW double counting   =     13804.41527933   -13779.18425447
  entropy T*S    EENTRO =        -0.00653948
  eigenvalues    EBANDS =     -1762.71961852
  atomic energy  EATOM  =      6123.88131970
  Solvation  Ediel_sol  =       -57.70065524
  ---------------------------------------------------
  free energy    TOTEN  =      -272.82288522 eV

  energy without entropy =     -272.81634574  energy(sigma->0) =     -272.81961548


--------------------------------------------------------------------------------------------------------




--------------------------------------- Iteration      1(  19)  ---------------------------------------


    POTLOK:  cpu time    3.0015: real time    3.0755
    SETDIJ:  cpu time    0.1322: real time    0.1335
     EDDAV:  cpu time    3.4125: real time    3.4472
       DOS:  cpu time    0.0017: real time    0.0017
    CHARGE:  cpu time    0.2431: real time    0.2452
    MIXING:  cpu time    0.0053: real time    0.0054
    --------------------------------------------
      LOOP:  cpu time    6.7964: real time    6.9085

 eigenvalue-minimisations  :  2092
 total energy-change (2. order) :-0.1366074E+01  (-0.3121991E-01)
 number of electron     141.0000001 magnetization       1.7129374
 augmentation part        4.0859314 magnetization       0.2949126

 Broyden mixing:
  rms(total) = 0.20365E+00    rms(broyden)= 0.20361E+00
  rms(prec ) = 0.23271E+00
  weight for this iteration     100.00

 eigenvalues of (default mixing * dielectric matrix)
  average eigenvalue GAMMA=   1.6164
  9.1092  2.3735  1.6911  1.6911  1.0994  1.0994  1.1367  0.8371  0.8371  0.3134
  0.7489  0.6329  0.6329  0.4271

 Free energy of the ion-electron system (eV)
  ---------------------------------------------------
  alpha Z        PSCENC =        31.96594715
  Ewald energy   TEWEN  =     21946.66524896
  -Hartree energ DENC   =    -27031.93242616
  -exchange      EXHF   =         0.00000000
  -V(xc)+E(xc)   XCENC  =       460.61104294
  PAW double counting   =     13742.23898217   -13716.99234857
  entropy T*S    EENTRO =        -0.00625223
  eigenvalues    EBANDS =     -1771.93249454
  atomic energy  EATOM  =      6123.88131970
  Solvation  Ediel_sol  =       -58.68797865
[...]
    1        0.858   1.734   0.000   2.592
    2        0.858   1.734   0.000   2.592
    3        0.858   1.734   0.000   2.592
    4        0.868   1.792   0.000   2.661
    5        0.868   1.792   0.000   2.660
    6        0.858   1.734   0.000   2.592
    7        0.867   1.764   0.000   2.631
    8        0.868   1.792   0.000   2.661
    9        0.868   1.792   0.000   2.660
   10        0.867   1.764   0.000   2.631
   11        0.858   1.734   0.000   2.592
   12        0.868   1.792   0.000   2.660
   13        0.869   1.793   0.000   2.661
   14        0.858   1.734   0.000   2.592
   15        0.867   1.765   0.000   2.632
   16        0.868   1.792   0.000   2.661
   17        0.868   1.792   0.000   2.660
   18        0.867   1.764   0.000   2.631
   19        0.858   1.734   0.000   2.592
   20        0.858   1.734   0.000   2.592
   21        1.232   2.655   0.000   3.888
   22        1.253   2.680   0.000   3.933
   23        1.232   2.655   0.000   3.888
   24        1.252   2.680   0.000   3.933
   25        1.253   2.680   0.000   3.933
   26        1.232   2.655   0.000   3.888
   27        1.253   2.680   0.000   3.932
   28        1.233   2.655   0.000   3.888
   29        0.634   0.048   0.000   0.682
   30        0.635   0.048   0.000   0.682
   31        0.635   0.048   0.000   0.683
   32        0.635   0.048   0.000   0.682
   33        1.258   0.900   0.097   2.254
   34        1.603   3.286   0.000   4.889
   35        1.603   3.286   0.000   4.889
--------------------------------------------------
tot         34.224  64.269   0.097  98.589
 


 magnetization (x)
 
# of ion       s       p       d       tot
------------------------------------------
    1       -0.000  -0.000   0.000  -0.000
    2       -0.000  -0.000   0.000  -0.000
    3        0.000   0.000   0.000   0.000
    4        0.000   0.000   0.000   0.000
    5        0.000   0.000   0.000   0.000
    6        0.000   0.000   0.000   0.000
    7       -0.000  -0.000   0.000  -0.000
    8        0.000   0.000   0.000   0.000
    9        0.000   0.000   0.000   0.000
   10       -0.000  -0.000   0.000  -0.000
   11       -0.000  -0.000   0.000  -0.000
   12       -0.000   0.000   0.000   0.000
   13        0.000   0.000   0.000   0.000
   14       -0.000  -0.000   0.000  -0.000
   15       -0.000  -0.000   0.000  -0.000
   16        0.000   0.000   0.000   0.000
   17       -0.000   0.000   0.000   0.000
   18       -0.000  -0.000   0.000  -0.000
   19        0.000   0.000   0.000   0.000
   20        0.000   0.000   0.000   0.000
   21       -0.000   0.000   0.000   0.000
   22        0.000   0.000   0.000   0.000
   23       -0.000  -0.001   0.000  -0.001
   24       -0.000   0.000   0.000   0.000
   25        0.000   0.000   0.000   0.000
   26       -0.000   0.000   0.000   0.000
   27        0.000   0.000   0.000   0.000
   28       -0.000   0.000   0.000   0.000
   29        0.000  -0.000   0.000   0.000
   30        0.000  -0.000   0.000   0.000
   31        0.000  -0.000   0.000   0.000
   32        0.000  -0.000   0.000   0.000
   33       -0.001  -0.000   0.000  -0.001
   34        0.009   0.697   0.000   0.706
   35        0.009   0.696   0.000   0.705
--------------------------------------------------
tot          0.017   1.394   0.000   1.411
 
    CHARGE:  cpu time    0.2861: real time    0.2883
    FORLOC:  cpu time    0.0103: real time    0.0113
    FORNL :  cpu time    1.1874: real time    1.1980
    STRESS:  cpu time    3.6977: real time    3.7362
    FORCOR:  cpu time    0.1124: real time    0.1141
    FORHAR:  cpu time    0.0206: real time    0.0209
    MIXING:  cpu time    0.0133: real time    0.0134
    OFIELD:  cpu time    0.0001: real time    0.0001

 ---------------------------------------------------------------------------------------------

         DFTD3 V3.0 Rev 1        
 IVDW         = 12
 DF pbe       
 parameters
 VDW_S6       =    1.0000
 VDW_S8       =    0.7875
 VDW_A1       =    0.4289
 VDW_A2       =    4.4407
 k1-k3        =   16.0000    1.3333   -4.0000
 VDW_RADIUS   =   50.2022 A
 VDW_CNRADIUS =   21.1671 A
 Edisp (eV)   -2.21836

 E6    (eV) :    -1.5073
 E8    (eV) :    -0.7111
 % E8        : 32.05
    FORVDW:  cpu time    0.0504: real time    0.1082

  FORCE on cell =-STRESS in cart. coord.  units (eV):
  Direction    XX          YY          ZZ          XY          YZ          ZX
  --------------------------------------------------------------------------------------
  Alpha Z    31.96595    31.96595    31.96595
  Ewald   24369.11967 23964.53658-26387.00183    81.32306   -19.18381   -24.49252
  Hartree 24429.65744 24222.80592-21631.42060    37.95553   -12.61782    -6.54884
  E(xc)    -557.97838  -558.96397  -574.66217     0.21679    -0.02184    -0.10325
  Local  -50374.14497-49804.60833 46134.97322  -110.05470    30.87282    27.78286
  n-local  -151.01410  -150.17176  -138.46091    -0.15678    -0.03849     0.12894
  augment    -5.43542    -2.36679    -2.42333    -0.67141     0.06154     0.13450
  Kinetic  2255.90798  2295.34133  2568.15603    -8.81499     0.92367     3.09033
  Fock        0.00000     0.00000     0.00000     0.00000     0.00000     0.00000
  vdW        -0.40933    -0.40410    -0.16369    -0.00183    -0.00030    -0.00779
  -------------------------------------------------------------------------------------
  Total      -2.33116    -1.86519     0.96266    -0.20433    -0.00423    -0.01579
  in kB      -1.34988    -1.08006     0.55744    -0.11832    -0.00245    -0.00914
  external pressure =       -0.62 kB  Pullay stress =        0.00 kB


 VOLUME and BASIS-vectors are now :
 -----------------------------------------------------------------------------
  energy-cutoff  :      520.00
  volume of cell :     2766.85
      direct lattice vectors                 reciprocal lattice vectors
    10.713800430  0.000000000  0.000000000     0.093337561 -0.000014989  0.000000000
     0.001719968 10.710399490  0.000000000     0.000000000  0.093367199  0.000000000
     0.000000000  0.000000000 24.112199783     0.000000000  0.000000000  0.041472782

  length of vectors
    10.713800430 10.710399628 24.112199783     0.093337562  0.093367199  0.041472782


 FORCES acting on ions
    electron-ion (+dipol)            ewald-force                    non-local-force                 convergence-correction
 -----------------------------------------------------------------------------------------------
   0.704E+02 0.702E+02 0.292E+02   -.712E+02 -.746E+02 -.299E+02   0.210E+00 0.361E+01 0.137E+00   -.396E-03 -.720E-03 -.125E-01
   -.686E+02 0.706E+02 0.360E+02   0.694E+02 -.749E+02 -.367E+02   -.188E+00 0.358E+01 0.204E+00   -.506E-03 -.121E-02 -.128E-01
   0.698E+02 -.697E+02 0.292E+02   -.742E+02 0.704E+02 -.299E+02   0.360E+01 -.193E+00 0.155E+00   -.336E-03 0.398E-03 -.122E-01
   0.478E+02 -.862E+02 0.356E+02   -.492E+02 0.872E+02 -.358E+02   0.994E+00 -.754E+00 -.935E-01   0.525E-02 -.145E-02 -.919E-02
   0.481E+02 0.863E+02 0.341E+02   -.495E+02 -.873E+02 -.342E+02   0.975E+00 0.777E+00 -.112E+00   0.500E-02 0.173E-02 -.935E-02
   0.699E+02 0.692E+02 0.280E+02   -.743E+02 -.699E+02 -.287E+02   0.359E+01 0.189E+00 0.143E+00   -.393E-03 -.356E-03 -.126E-01
   -.121E+01 0.189E+03 0.359E+02   0.120E+01 -.192E+03 -.361E+02   -.109E-01 0.287E+01 0.123E+00   0.623E-03 0.528E-02 -.847E-02
   -.504E+02 0.864E+02 0.409E+02   0.518E+02 -.874E+02 -.410E+02   -.986E+00 0.749E+00 -.103E+00   -.392E-02 0.140E-02 -.102E-01
   -.505E+02 -.867E+02 0.414E+02   0.519E+02 0.877E+02 -.415E+02   -.980E+00 -.771E+00 -.998E-01   -.376E-02 -.141E-02 -.102E-01
   -.119E+01 -.189E+03 0.382E+02   0.117E+01 0.192E+03 -.385E+02   0.297E-02 -.287E+01 0.147E+00   0.730E-03 -.522E-02 -.833E-02
   -.685E+02 -.704E+02 0.368E+02   0.693E+02 0.747E+02 -.375E+02   -.189E+00 -.361E+01 0.184E+00   -.454E-03 0.106E-02 -.127E-01
   -.852E+02 -.493E+02 0.408E+02   0.862E+02 0.507E+02 -.409E+02   -.765E+00 -.995E+00 -.842E-01   -.221E-02 -.439E-02 -.897E-02
   0.868E+02 -.489E+02 0.369E+02   -.878E+02 0.503E+02 -.370E+02   0.758E+00 -.966E+00 -.108E+00   0.159E-02 -.469E-02 -.880E-02
   0.706E+02 -.698E+02 0.307E+02   -.713E+02 0.742E+02 -.314E+02   0.214E+00 -.359E+01 0.127E+00   -.192E-03 0.656E-03 -.120E-01
   0.189E+03 0.137E+00 0.338E+02   -.192E+03 -.125E+00 -.340E+02   0.288E+01 0.589E-02 0.122E+00   0.566E-02 -.162E-03 -.775E-02
   0.868E+02 0.493E+02 0.357E+02   -.877E+02 -.507E+02 -.358E+02   0.755E+00 0.999E+00 -.120E+00   0.170E-02 0.426E-02 -.903E-02
   -.854E+02 0.493E+02 0.405E+02   0.864E+02 -.507E+02 -.407E+02   -.771E+00 0.979E+00 -.692E-01   -.206E-02 0.435E-02 -.908E-02
   -.188E+03 0.204E+00 0.415E+02   0.191E+03 -.200E+00 -.417E+02   -.288E+01 0.292E-02 0.156E+00   -.597E-02 -.590E-04 -.783E-02
   -.702E+02 0.702E+02 0.388E+02   0.746E+02 -.709E+02 -.394E+02   -.360E+01 0.201E+00 0.128E+00   0.773E-03 -.923E-03 -.138E-01
   -.702E+02 -.704E+02 0.388E+02   0.745E+02 0.712E+02 -.394E+02   -.359E+01 -.178E+00 0.135E+00   0.640E-03 0.121E-02 -.139E-01
   0.179E+01 -.894E+02 0.444E+02   -.180E+01 0.106E+03 -.480E+02   0.493E-01 -.178E+02 0.240E+01   -.711E-03 -.920E-02 -.218E-01
   -.192E+03 0.194E+03 0.381E+02   0.216E+03 -.218E+03 -.391E+02   -.229E+02 0.230E+02 0.556E+00   -.560E-02 0.406E-02 -.153E-01
   -.893E+02 -.489E+00 0.399E+02   0.106E+03 0.473E+00 -.436E+02   -.178E+02 0.334E-02 0.245E+01   -.894E-02 0.522E-03 -.210E-01
   0.192E+03 -.192E+03 0.279E+02   -.216E+03 0.216E+03 -.288E+02   0.229E+02 -.229E+02 0.358E+00   0.553E-02 -.506E-02 -.138E-01
   0.193E+03 0.192E+03 0.253E+02   -.217E+03 -.217E+03 -.261E+02   0.230E+02 0.230E+02 0.235E+00   0.506E-02 0.466E-02 -.145E-01
   0.194E+01 0.894E+02 0.469E+02   -.189E+01 -.106E+03 -.507E+02   -.350E-02 0.178E+02 0.255E+01   -.129E-02 0.930E-02 -.212E-01
   -.192E+03 -.194E+03 0.387E+02   0.216E+03 0.218E+03 -.398E+02   -.229E+02 -.229E+02 0.567E+00   -.546E-02 -.376E-02 -.153E-01
   0.911E+02 -.225E+00 0.556E+02   -.108E+03 0.224E+00 -.595E+02   0.179E+02 -.253E-02 0.277E+01   0.851E-02 -.116E-03 -.235E-01
   -.269E+00 -.828E+02 0.796E+01   0.271E+00 0.886E+02 -.798E+01   -.984E-02 -.596E+01 0.392E-03   0.134E-03 -.160E-02 -.193E-02
   -.209E+00 0.828E+02 0.701E+01   0.201E+00 -.886E+02 -.699E+01   0.614E-02 0.596E+01 -.403E-01   0.117E-03 0.159E-02 -.198E-02
   0.828E+02 0.286E-01 0.579E+01   -.886E+02 -.227E-01 -.571E+01   0.596E+01 -.778E-02 -.100E+00   0.172E-02 -.280E-04 -.186E-02
   -.827E+02 0.336E-01 0.981E+01   0.885E+02 -.351E-01 -.989E+01   -.596E+01 0.183E-03 0.807E-01   -.176E-02 -.146E-04 -.186E-02
   0.414E+01 -.152E+01 -.221E+03   -.380E+01 0.156E+01 0.238E+03   -.281E+00 -.721E-01 -.180E+02   -.323E-02 0.597E-03 -.501E-01
   0.273E+03 0.588E+02 -.441E+03   -.319E+03 -.687E+02 0.446E+03   0.464E+02 0.974E+01 -.264E+01   -.771E-01 -.162E-01 -.162E-01
   -.282E+03 -.577E+02 -.412E+03   0.329E+03 0.674E+02 0.412E+03   -.465E+02 -.974E+01 0.251E+01   0.769E-01 0.166E-01 -.248E-01
 -----------------------------------------------------------------------------------------------
   0.118E+00 0.190E-01 0.580E+01   0.227E-12 0.384E-12 -.227E-12   -.125E+00 -.255E-01 -.532E+01   -.435E-02 0.117E-02 -.455E+00
 
 
 POSITION                                       TOTAL-FORCE (eV/Angst)
 -----------------------------------------------------------------------------------
      4.55384      2.72246     11.62676         0.007401      0.007645      0.010639
      6.82386      2.72404     11.59963        -0.018785     -0.010748      0.020118
      2.89948      6.64652     11.62610         0.008075     -0.007952      0.001367
      1.51689      6.22610     11.56327         0.016050      0.003473     -0.007693
      1.51675      4.79527     11.56958        -0.002023      0.008921     -0.014492
      2.89965      4.37690     11.63421        -0.000782     -0.011322      0.007443
      0.33264      4.05657     11.53945        -0.010958     -0.003387      0.010747
      9.86275      4.79691     11.54169         0.004317     -0.010406     -0.017426
      9.86312      6.22789     11.53834         0.015114     -0.002461     -0.012325
      0.33443      6.96640     11.52867        -0.004979      0.015297      0.021550
      6.82550      8.30306     11.59080         0.000692     -0.022245      0.012684
      6.40487      9.68482     11.53575         0.000624     -0.003035     -0.009748
      4.97363      9.68386     11.55221         0.001700      0.005895     -0.016408
      4.55456      8.30166     11.61405         0.021665      0.002255      0.010754
      4.23249      0.15678     11.54440        -0.003039      0.009292      0.024815
      4.97259      1.34013     11.55987        -0.000388      0.023133     -0.018990
      6.40358      1.34140     11.54084        -0.000180      0.004233     -0.000959
      7.14336      0.15805     11.50915        -0.011320      0.004169      0.012992
      8.48003      4.37785     11.58943        -0.015322      0.015777      0.021831
      8.48085      6.64801     11.58654        -0.012639      0.018621      0.016132
      5.68844      3.53204     11.65959         0.025123     -0.006914     -0.026201
      8.09542      3.10704     11.59682        -0.006096      0.011253     -0.003967
      3.70855      5.51186     11.67413         0.009611      0.006156     -0.009917
      3.28312      7.91770     11.62836         0.003891     -0.012772      0.002270
      3.28219      3.10561     11.64221         0.019319      0.009434     -0.000219
      5.69039      7.49385     11.64635         0.007825     -0.011055     -0.022208
      8.09723      7.91947     11.59050        -0.014580     -0.019844     -0.002177
      7.67069      5.51319     11.62815        -0.000269     -0.003159     -0.025461
      0.33607      8.05570     11.52865        -0.002620      0.012453     -0.008772
      0.33149      2.96770     11.54686         0.000971     -0.025714     -0.008911
      3.14389      0.15801     11.56264        -0.030284     -0.003602     -0.011345
      8.23237      0.15791     11.49489         0.017871     -0.001367      0.002542
      5.70265      5.51717     12.61679        -0.035456     -0.000450     -0.049401
      5.41362      5.32302     16.09808         0.076400      0.017228      0.044122
      6.64590      5.58132     16.02982        -0.066927     -0.018800      0.046611
 -----------------------------------------------------------------------------------
    total drift:                               -0.011331     -0.005309      0.025085


--------------------------------------------------------------------------------------------------------



  FREE ENERGIE OF THE ION-ELECTRON SYSTEM (eV)
  ---------------------------------------------------
  free  energy   TOTEN  =      -277.33044451 eV

  energy  without entropy=     -277.31274540  energy(sigma->0) =     -277.32159495
 


--------------------------------------------------------------------------------------------------------


    POTLOK:  cpu time    2.2613: real time    2.2874


--------------------------------------------------------------------------------------------------------


 stress matrix after NEB project (eV)
     -2.33116     -0.20433     -0.01579
     -0.20433     -1.86519     -0.00423
     -0.01579     -0.00423      0.96266
  FORCES: max atom, RMS     0.089892    0.031471
  FORCE total and by dimension    0.186185    0.076400
  Stress total and by dimension    3.150236    2.331160
 writing wavefunctions
     LOOP+:  cpu time  333.6743: real time  365.4472
    4ORBIT:  cpu time    0.0000: real time    0.0000
 


 total charge     
 
# of ion       s       p       d       tot
------------------------------------------
    1        0.858   1.734   0.000   2.592
    2        0.858   1.734   0.000   2.592
    3        0.858   1.734   0.000   2.592
    4        0.868   1.792   0.000   2.661
    5        0.868   1.792   0.000   2.660
    6        0.858   1.734   0.000   2.592
    7        0.867   1.764   0.000   2.631
    8        0.868   1.792   0.000   2.661
    9        0.868   1.792   0.000   2.660
   10        0.867   1.764   0.000   2.631
   11        0.858   1.734   0.000   2.592
   12        0.868   1.792   0.000   2.660
   13        0.869   1.793   0.000   2.661
   14        0.858   1.734   0.000   2.592
   15        0.867   1.765   0.000   2.632
   16        0.868   1.792   0.000   2.661
   17        0.868   1.792   0.000   2.660
   18        0.867   1.764   0.000   2.631
   19        0.858   1.734   0.000   2.592
   20        0.858   1.734   0.000   2.592
   21        1.232   2.655   0.000   3.888
   22        1.253   2.680   0.000   3.933
   23        1.232   2.655   0.000   3.888
   24        1.252   2.680   0.000   3.933
   25        1.253   2.680   0.000   3.933
   26        1.232   2.655   0.000   3.888
   27        1.253   2.680   0.000   3.932
   28        1.233   2.655   0.000   3.888
   29        0.634   0.048   0.000   0.682
   30        0.635   0.048   0.000   0.682
   31        0.635   0.048   0.000   0.683
   32        0.635   0.048   0.000   0.682
   33        1.258   0.900   0.097   2.254
   34        1.603   3.286   0.000   4.889
   35        1.603   3.286   0.000   4.889
--------------------------------------------------
tot         34.224  64.269   0.097  98.589
 


 magnetization (x)
 
# of ion       s       p       d       tot
------------------------------------------
    1       -0.000  -0.000   0.000  -0.000
    2       -0.000  -0.000   0.000  -0.000
    3        0.000   0.000   0.000   0.000
    4        0.000   0.000   0.000   0.000
    5        0.000   0.000   0.000   0.000
    6        0.000   0.000   0.000   0.000
    7       -0.000  -0.000   0.000  -0.000
    8        0.000   0.000   0.000   0.000
    9        0.000   0.000   0.000   0.000
   10       -0.000  -0.000   0.000  -0.000
   11       -0.000  -0.000   0.000  -0.000
   12       -0.000   0.000   0.000   0.000
   13        0.000   0.000   0.000   0.000
   14       -0.000  -0.000   0.000  -0.000
   15       -0.000  -0.000   0.000  -0.000
   16        0.000   0.000   0.000   0.000
   17       -0.000   0.000   0.000   0.000
   18       -0.000  -0.000   0.000  -0.000
   19        0.000   0.000   0.000   0.000
   20        0.000   0.000   0.000   0.000
   21       -0.000   0.000   0.000   0.000
   22        0.000   0.000   0.000   0.000
   23       -0.000  -0.001   0.000  -0.001
   24       -0.000   0.000   0.000   0.000
   25        0.000   0.000   0.000   0.000
   26       -0.000   0.000   0.000   0.000
   27        0.000   0.000   0.000   0.000
   28       -0.000   0.000   0.000   0.000
   29        0.000  -0.000   0.000   0.000
   30        0.000  -0.000   0.000   0.000
   31        0.000  -0.000   0.000   0.000
   32        0.000  -0.000   0.000   0.000
   33       -0.001  -0.000   0.000  -0.001
   34        0.009   0.697   0.000   0.706
   35        0.009   0.696   0.000   0.705
--------------------------------------------------
tot          0.017   1.394   0.000   1.411
 

 total amount of memory used by VASP MPI-rank0    78044. kBytes
=======================================================================

   base      :      30000. kBytes
   nonlr-proj:       1071. kBytes
   fftplans  :      13059. kBytes
   grid      :      12568. kBytes
   one-center:         32. kBytes
   wavefun   :      21314. kBytes
 
  
  
 General timing and accounting informations for this job:
 ========================================================
  
                  Total CPU time used (sec):      352.052
                            User time (sec):      312.188
                          System time (sec):       39.864
                         Elapsed time (sec):      391.416
  
                   Maximum memory used (kb):      328860.
                   Average memory used (kb):           0.
  
                          Minor page faults:        35447
                          Major page faults:           68
                 Voluntary context switches:        16749
